60
Final configuration at step 5000.000000
2	296.990563	413.979072	-97.295059	
-1	297.059460	414.340431	-98.224934	
-2	295.997482	413.915077	-97.393505	
-3	301.268835	414.360528	-95.145930	
-4	301.699982	413.035880	-90.944708	
2	306.958218	417.260476	-99.993269	
-1	307.213778	416.650564	-100.743401	
-2	307.067914	418.049652	-100.597558	
-3	306.747917	414.727513	-95.917999	
-4	302.421644	417.148501	-94.234126	
2	314.288208	409.624794	-92.542393	
-1	314.207938	408.629531	-92.597262	
-2	315.283061	409.548212	-92.608729	
-3	309.996187	411.484133	-91.451799	
-4	308.201390	415.844166	-92.460023	
3	314.355033	407.524152	-89.749959	
-1	314.224595	406.579011	-90.049453	
-2	315.344498	407.419184	-89.849640	
-3	310.871626	406.687972	-89.104501	
-4	309.967755	411.407994	-88.402651	
2	307.620517	400.986068	-78.449295	
-1	307.341635	400.026062	-78.424525	
-2	307.419482	401.069649	-77.473284	
-3	308.292223	402.304123	-83.018705	
-4	310.005201	406.518634	-84.982385	
3	305.921439	400.155785	-91.728545	
-1	305.430259	400.895802	-92.188021	
-2	306.303477	399.864754	-92.605670	
-3	303.586454	401.534468	-89.300157	
-4	305.137234	402.890303	-84.594460	
0	299.166567	395.310528	-82.676380	
-1	299.448374	394.640888	-81.989234	
-2	298.448910	395.638762	-82.062193	
-3	301.491725	394.414157	-86.782233	
-4	300.938470	398.431171	-89.454474	
0	293.203965	391.376290	-91.780324	
-1	292.268698	391.630776	-91.534328	
-2	292.893046	391.117695	-92.694907	
-3	295.942756	391.476062	-87.836073	
-4	300.724004	390.555222	-88.185755	
2	291.089418	384.693719	-81.777573	
-1	290.586759	385.106590	-81.018051	
-2	290.695141	383.802346	-81.553964	
-3	294.190797	387.911962	-83.536087	
-4	296.490571	387.405619	-87.244018	
3	300.364482	388.101790	-76.388113	
-1	300.313279	387.443271	-75.637292	
-2	301.195193	388.491013	-75.990087	
-3	297.105201	386.497270	-76.617374	
-4	297.635901	387.488943	-80.794075	
3	291.172331	392.730449	-72.402373	
-1	291.683066	393.528862	-72.083487	
-2	290.317664	393.242177	-72.314746	
-3	294.574249	391.611054	-71.751337	
-4	293.924828	388.753714	-75.046263	
1	292.007144	389.968397	-61.595538	
-1	291.477872	389.120175	-61.615341	
-2	291.791835	390.080097	-60.625401	
-3	291.652297	389.032025	-65.095145	
-4	295.408327	390.244795	-67.945444	
