60
Final configuration at step 5000.000000
2	314.070876	419.498043	-115.576745	
-1	313.797807	418.808426	-116.247460	
-2	313.549944	420.190189	-116.076306	
-3	317.408725	417.625001	-112.675306	
-4	317.179816	420.101131	-108.585940	
2	320.438128	412.381397	-120.473299	
-1	320.701071	411.507148	-120.881407	
-2	319.844383	412.568176	-121.255972	
-3	323.228957	413.230762	-116.657829	
-4	320.900171	417.796643	-115.145289	
2	325.852665	409.438103	-123.300032	
-1	325.909687	408.578565	-123.807914	
-2	325.602666	409.918310	-124.140807	
-3	327.570626	408.754593	-118.867268	
-4	327.466835	413.114163	-117.855575	
3	333.741358	404.476464	-119.917238	
-1	334.115024	403.951478	-119.152539	
-2	333.652993	403.635652	-120.451301	
-3	335.039156	406.888974	-117.520270	
-4	330.741952	409.108080	-119.776694	
2	338.784384	408.897819	-126.283858	
-1	339.350487	408.663265	-127.074118	
-2	338.249689	409.522970	-126.852439	
-3	340.741230	406.989903	-122.334354	
-4	339.119774	407.500873	-118.584931	
3	345.980375	407.727408	-116.040356	
-1	346.770716	407.191027	-115.744285	
-2	346.070454	408.307138	-115.230541	
-3	346.107546	404.778706	-118.170842	
-4	343.329538	408.451006	-120.983015	
0	336.504116	400.062211	-115.368662	
-1	336.043159	399.801080	-114.520528	
-2	335.872612	399.487276	-115.888901	
-3	340.500546	402.499090	-114.292541	
-4	342.589749	402.896772	-118.037695	
0	342.246971	400.892121	-104.478920	
-1	342.726913	401.029029	-103.612368	
-2	341.388804	400.760210	-103.982782	
-3	345.473406	400.572441	-108.022361	
-4	343.428063	400.120434	-112.676704	
2	339.438717	394.720958	-113.766896	
-1	338.656930	394.100272	-113.707224	
-2	339.149447	394.997196	-114.683420	
-3	342.352248	393.933162	-110.030758	
-4	345.690168	396.363236	-107.886463	
3	340.589027	389.147959	-113.515081	
-1	340.864557	388.329429	-114.019157	
-2	339.665726	388.776661	-113.416841	
-3	343.864857	389.844451	-114.941193	
-4	345.549859	391.918515	-110.046327	
3	348.471283	388.391372	-118.609832	
-1	349.284953	388.585436	-119.157813	
-2	348.699181	387.417708	-118.616264	
-3	348.197652	391.850472	-119.709696	
-4	344.050451	393.158997	-116.498109	
1	351.366037	396.777477	-118.843028	
-1	351.913476	397.431218	-119.365460	
-2	352.072996	396.750250	-118.136299	
-3	349.813633	397.064596	-122.122901	
-4	346.378515	393.753495	-122.414343	
