60
Final configuration at step 5000.000000
2	336.341829	426.335043	-127.107839	
-1	335.997741	425.928841	-126.261318	
-2	335.447962	426.752729	-127.270748	
-3	340.685306	424.521013	-128.062506	
-4	342.745772	426.302313	-132.297572	
2	340.710293	414.083066	-128.975519	
-1	340.979491	413.211144	-128.566517	
-2	340.551672	413.624044	-129.849670	
-3	341.674418	417.627904	-125.881558	
-4	339.372931	421.106066	-128.647559	
2	340.321473	420.161150	-120.434885	
-1	340.155015	420.396403	-119.477310	
-2	339.338226	420.194692	-120.614044	
-3	344.938942	418.952872	-120.970601	
-4	344.635362	419.729794	-126.280143	
3	340.655330	413.257042	-121.749576	
-1	340.238842	412.443351	-121.344058	
-2	339.760286	413.545782	-122.089464	
-3	343.385498	411.083946	-120.713331	
-4	346.470156	415.468750	-119.466814	
2	349.819470	415.321368	-123.884108	
-1	350.699958	415.774313	-123.744174	
-2	349.350570	416.196916	-123.767704	
-3	350.494082	410.566263	-123.927293	
-4	345.957771	409.343956	-123.692138	
3	347.895996	401.950835	-118.929017	
-1	348.629199	401.289678	-118.769999	
-2	347.266381	401.379136	-118.402952	
-3	350.654596	402.895830	-121.107797	
-4	351.558100	408.064506	-120.760141	
0	352.861038	392.568075	-125.481629	
-1	353.590566	392.005776	-125.871002	
-2	352.180784	391.912439	-125.809337	
-3	354.719022	396.746572	-124.013297	
-4	351.047461	400.357298	-123.971010	
0	347.246735	399.464524	-131.507864	
-1	346.692746	398.930935	-132.146910	
-2	346.703911	400.278032	-131.716548	
-3	350.996631	396.815891	-130.096835	
-4	354.740092	398.095291	-127.438484	
2	356.641081	402.832600	-133.603561	
-1	356.468417	403.780385	-133.335436	
-2	357.625627	403.006757	-133.585166	
-3	352.475309	400.757117	-134.789605	
-4	353.353565	396.022745	-132.562530	
3	354.959689	406.796721	-135.437162	
-1	354.957262	407.774944	-135.644703	
-2	354.879429	407.003404	-134.462051	
-3	355.882238	407.130062	-138.942551	
-4	352.618305	402.292228	-138.960337	
3	361.059367	401.000723	-136.895272	
-1	361.441324	400.945420	-135.972748	
-2	360.901820	400.013231	-136.889236	
-3	362.594428	404.226719	-136.197810	
-4	359.542910	406.283057	-139.486906	
1	364.683332	401.240686	-143.139956	
-1	365.387950	401.057536	-143.825498	
-2	364.024597	400.712704	-143.675962	
-3	367.507072	403.396627	-142.347247	
-4	365.447799	405.601507	-138.567308	
