60
Final configuration at step 5000.000000
2	327.255639	427.196236	-93.365520	
-1	327.484398	426.391796	-93.913736	
-2	327.528142	427.789791	-94.122774	
-3	326.338723	425.810883	-88.859088	
-4	323.271613	430.002312	-87.722486	
2	334.676755	420.892177	-85.002433	
-1	334.990041	420.314543	-84.248647	
-2	335.449445	420.585777	-85.558371	
-3	331.112823	423.707818	-83.440861	
-4	330.077277	425.949797	-87.339572	
2	339.239381	430.121981	-80.064883	
-1	340.233374	430.228369	-80.039163	
-2	339.159995	430.660990	-79.226334	
-3	338.092452	426.945021	-83.479478	
-4	333.411882	426.242131	-82.009272	
3	342.440433	424.445557	-88.681096	
-1	342.626568	423.493322	-88.923175	
-2	342.550644	424.710624	-89.639004	
-3	342.895847	422.635941	-85.555744	
-4	339.092891	423.844362	-81.489609	
2	348.165439	420.270162	-77.364809	
-1	348.001555	420.352055	-76.381735	
-2	348.511475	419.341709	-77.229777	
-3	347.525927	424.562906	-79.421831	
-4	346.931849	422.830706	-84.062006	
3	357.336438	423.866379	-78.573716	
-1	358.035431	424.064025	-79.260990	
-2	358.034508	423.886457	-77.857968	
-3	355.782935	423.365994	-81.827365	
-4	351.235643	425.818883	-79.336628	
0	349.518011	415.781706	-81.190098	
-1	349.233292	414.826068	-81.114640	
-2	348.741274	416.057824	-80.624027	
-3	353.048470	416.112586	-84.429580	
-4	356.359286	420.311903	-82.986622	
0	347.081853	412.629706	-91.151687	
-1	346.336532	411.963344	-91.173139	
-2	346.959513	412.798030	-92.129799	
-3	349.262767	412.402642	-86.878503	
-4	351.300301	416.475916	-87.148313	
2	345.677582	404.737120	-83.123943	
-1	345.459740	404.335800	-82.234285	
-2	344.904156	404.252124	-83.532102	
-3	349.909788	406.989038	-82.831872	
-4	351.795460	409.939820	-86.531521	
3	357.965076	404.564575	-86.965532	
-1	357.747508	404.062911	-87.802788	
-2	358.940945	404.436486	-87.142372	
-3	354.383563	403.917438	-86.902817	
-4	353.829749	405.876253	-82.530219	
3	357.909874	398.122722	-88.083791	
-1	357.643208	397.294283	-88.576316	
-2	358.803619	398.101415	-88.531861	
-3	354.805305	396.959511	-86.580949	
-4	352.388937	400.762458	-85.568677	
1	356.665603	389.615493	-87.109616	
-1	357.252306	388.938417	-86.665376	
-2	356.343998	388.917219	-87.749134	
-3	358.868291	391.445624	-84.862674	
-4	355.015759	394.768210	-82.768844	
