60
Final configuration at step 5000.000000
2	348.455685	393.707858	-110.256007	
-1	347.778709	394.414747	-110.051055	
-2	349.054148	394.398644	-110.661785	
-3	346.527712	389.395114	-109.389378	
-4	350.211301	386.202635	-107.633938	
2	345.552950	384.089759	-117.369195	
-1	346.244113	383.427085	-117.657561	
-2	344.912320	383.712644	-118.038058	
-3	347.581144	387.277910	-114.404380	
-4	343.426235	389.642936	-111.873676	
2	341.328014	389.951736	-118.868308	
-1	340.679836	390.238738	-119.573642	
-2	340.567845	389.762398	-118.246784	
-3	345.783888	391.017996	-120.309218	
-4	347.940790	390.240739	-116.732159	
3	346.525572	399.656953	-117.220759	
-1	345.996416	400.488663	-117.388845	
-2	347.224849	400.196599	-116.751937	
-3	343.889002	398.769188	-119.568169	
-4	346.775671	395.050231	-119.020070	
2	350.921839	396.433475	-128.529908	
-1	351.252485	395.636541	-129.035446	
-2	351.394720	397.036945	-129.171941	
-3	348.863120	394.955979	-124.449874	
-4	345.345505	398.532995	-123.253483	
3	351.425520	397.156240	-116.578630	
-1	351.028971	398.067289	-116.465760	
-2	351.206273	396.942860	-115.626580	
-3	352.340782	399.074719	-119.533576	
-4	351.713774	394.974578	-122.662657	
0	359.620317	405.525966	-117.865465	
-1	359.791308	406.494756	-117.685994	
-2	360.438777	405.487710	-118.438751	
-3	355.292688	404.354406	-116.142962	
-4	355.871571	400.020890	-118.044219	
0	354.535098	400.256468	-125.572331	
-1	355.372645	400.323584	-126.114560	
-2	354.253937	399.458474	-126.105393	
-3	354.152018	404.155241	-122.793698	
-4	351.794967	405.704513	-118.426563	
2	358.847759	409.258708	-126.785581	
-1	359.232667	410.113447	-127.133814	
-2	359.765458	408.944486	-126.542491	
-3	354.199290	409.036248	-127.973112	
-4	351.973162	406.355754	-124.919370	
3	353.022930	410.345874	-138.339281	
-1	353.347593	409.503084	-138.768580	
-2	352.653500	410.650710	-139.217117	
-3	355.197026	408.705681	-135.924112	
-4	353.007272	409.247364	-131.749211	
3	363.245822	411.629959	-130.101735	
-1	363.952565	412.157432	-130.573209	
-2	363.742555	411.734522	-129.240155	
-3	362.617081	411.276484	-133.669599	
-4	357.778777	410.708173	-133.323148	
1	369.149578	410.392983	-134.940398	
-1	369.669404	410.408826	-134.086273	
-2	369.599431	411.237878	-135.229854	
-3	367.682293	407.866185	-132.769606	
-4	363.897335	408.327904	-134.847594	
