60
Final configuration at step 5000.000000
2	372.395563	416.461350	-91.431268	
-1	372.566043	415.918585	-92.253665	
-2	371.410388	416.351297	-91.562856	
-3	376.533261	418.395806	-89.946266	
-4	376.526685	421.647663	-86.387291	
2	383.486387	421.020113	-88.100365	
-1	384.475076	421.154120	-88.033041	
-2	383.466427	420.692780	-87.155667	
-3	382.133272	421.614324	-92.670267	
-4	376.937570	421.203993	-91.514621	
2	382.492389	412.696582	-100.086028	
-1	382.345536	412.783915	-101.071324	
-2	382.301882	411.716641	-100.144494	
-3	382.887718	417.081691	-98.167049	
-4	383.416252	417.614139	-93.909068	
3	374.137401	414.489307	-97.058263	
-1	373.348273	414.316057	-97.647552	
-2	373.699741	413.974758	-96.320908	
-3	374.524796	416.616525	-99.986544	
-4	379.438804	418.735118	-99.513762	
2	382.006644	423.305244	-102.634435	
-1	382.510143	424.041773	-103.086115	
-2	382.870505	422.885391	-102.356105	
-3	377.355017	423.658426	-103.777074	
-4	374.625363	420.932861	-99.991020	
3	377.678698	425.312421	-113.426920	
-1	378.599953	425.353640	-113.813692	
-2	377.294919	425.246994	-114.348024	
-3	379.919775	426.230235	-110.709354	
-4	377.101242	423.454555	-108.155335	
0	386.511308	430.458232	-107.151726	
-1	387.259834	429.922599	-106.760816	
-2	387.174414	431.064023	-107.591392	
-3	382.364497	428.997770	-105.218091	
-4	379.322843	429.482091	-109.172270	
0	390.418839	427.758355	-102.664191	
-1	391.201316	427.214712	-102.360575	
-2	390.831079	427.845200	-103.571119	
-3	387.676104	428.812711	-98.865018	
-4	383.369105	429.863701	-101.316841	
2	378.889677	431.106258	-98.338944	
-1	378.036710	431.483850	-97.978565	
-2	378.400796	430.770233	-99.143980	
-3	382.287944	431.409501	-94.958440	
-4	387.451620	431.805670	-96.063677	
3	379.637686	431.316458	-86.711919	
-1	380.327106	431.526424	-86.018657	
-2	378.980187	431.899466	-86.234636	
-3	382.415001	429.029316	-87.264608	
-4	382.267134	428.973354	-92.548929	
3	387.757085	427.030608	-81.023527	
-1	387.601839	426.666481	-80.105207	
-2	388.743689	427.020579	-80.860709	
-3	384.183760	427.289736	-80.380005	
-4	382.649053	426.135103	-85.487613	
1	383.815716	437.126815	-82.330301	
-1	383.037661	437.738411	-82.186840	
-2	384.241660	437.808284	-82.925424	
-3	381.238306	435.174713	-80.658107	
-4	383.810797	431.154625	-78.963876	
