60
Final configuration at step 5000.000000
2	336.286511	444.993578	-151.723014	
-1	335.557875	444.488759	-151.260151	
-2	336.461683	444.202887	-152.309631	
-3	337.111837	449.084189	-149.345281	
-4	339.425437	452.709817	-150.917454	
2	331.032597	451.078760	-145.361308	
-1	330.359837	451.444874	-144.718381	
-2	330.311490	450.948713	-146.041816	
-3	335.202458	450.434649	-143.066677	
-4	338.250329	448.646967	-146.285206	
2	340.142845	441.533610	-139.847998	
-1	340.757557	440.803837	-140.147267	
-2	340.361009	441.326300	-138.894360	
-3	337.663881	443.143583	-143.633589	
-4	334.440995	446.832822	-141.875587	
3	329.291804	442.099169	-146.066674	
-1	328.618257	442.220604	-145.337572	
-2	328.562769	442.152599	-146.749059	
-3	330.999879	441.397250	-142.929841	
-4	334.901540	442.345185	-145.618401	
2	327.242202	431.379403	-137.425909	
-1	326.442333	431.333437	-136.827498	
-2	327.381045	430.395217	-137.315918	
-3	328.286463	435.986555	-138.292882	
-4	330.360172	437.101881	-142.756004	
3	331.357016	437.476534	-130.698692	
-1	331.554639	436.592726	-130.274627	
-2	331.865802	437.938776	-129.972420	
-3	329.276372	435.012072	-132.386095	
-4	331.177530	437.642742	-136.456333	
0	318.179913	433.861729	-131.905386	
-1	317.368269	434.229622	-131.451631	
-2	317.646884	433.713091	-132.738323	
-3	321.671637	433.300709	-128.655619	
-4	325.558546	433.898687	-132.454177	
0	314.881883	428.834032	-124.502602	
-1	314.312949	429.230550	-123.782125	
-2	314.133406	428.221387	-124.756476	
-3	319.371277	430.475353	-124.034140	
-4	322.759068	429.979533	-126.597771	
2	319.856852	436.665461	-117.421522	
-1	320.375174	437.509812	-117.285817	
-2	319.006063	437.158512	-117.239698	
-3	322.922230	432.983319	-117.758127	
-4	321.478074	429.327372	-120.907290	
3	324.684435	432.167143	-107.197328	
-1	324.746626	433.164819	-107.225187	
-2	324.826963	432.185892	-106.207715	
-3	324.906421	433.109129	-110.706365	
-4	323.262160	430.778841	-114.195915	
3	331.559288	434.210940	-117.686456	
-1	332.499739	434.509503	-117.523933	
-2	331.559240	434.689174	-118.564689	
-3	332.326412	433.426584	-114.215685	
-4	328.281601	431.673796	-111.506337	
1	330.268227	439.796491	-116.811121	
-1	330.697990	440.697056	-116.876607	
-2	329.779985	439.967253	-117.666959	
-3	331.895885	440.419579	-113.615428	
-4	331.348332	436.326741	-111.350997	
