60
Final configuration at step 5000.000000
2	357.593360	409.328602	-69.954038	
-1	358.465478	408.864269	-69.799769	
-2	357.118922	408.603196	-69.455346	
-3	358.270525	412.948214	-73.037499	
-4	355.218253	417.183186	-73.206642	
2	354.105664	406.475109	-74.384559	
-1	353.914770	405.493963	-74.354365	
-2	353.129543	406.668093	-74.284849	
-3	358.708580	407.138552	-75.584961	
-4	360.181504	411.163470	-76.460391	
2	355.394678	398.852439	-82.722404	
-1	355.787377	397.934208	-82.671023	
-2	354.879546	398.586536	-83.537225	
-3	357.630753	401.691072	-79.558528	
-4	357.506144	406.211917	-79.734948	
3	361.919436	396.251708	-77.755534	
-1	362.186573	396.042058	-76.814956	
-2	362.040350	395.290668	-78.004086	
-3	362.410142	399.438734	-76.066746	
-4	361.822635	402.803258	-79.876685	
2	369.934292	393.231510	-73.226798	
-1	370.384312	392.398354	-73.548252	
-2	370.018750	392.912866	-72.282695	
-3	368.219826	395.644263	-77.009284	
-4	366.329190	400.078750	-76.030623	
3	367.175396	397.039911	-83.618936	
-1	366.828575	397.112896	-84.554024	
-2	367.679320	397.895264	-83.739078	
-3	365.601817	393.853893	-84.408316	
-4	365.405173	393.578347	-79.180137	
0	358.810012	387.686413	-83.370636	
-1	358.136005	387.811749	-82.642619	
-2	358.158724	387.120513	-83.876184	
-3	363.033668	389.449605	-81.914699	
-4	367.181996	390.978636	-84.844546	
0	360.339453	382.762544	-80.880679	
-1	359.742714	382.350761	-80.191956	
-2	359.743416	382.415349	-81.604696	
-3	364.328236	384.366318	-78.739286	
-4	366.680898	388.470304	-80.498405	
2	371.503861	378.397366	-74.967608	
-1	371.882585	378.514451	-74.049532	
-2	371.751188	377.428672	-74.946093	
-3	370.434719	382.713694	-76.782617	
-4	367.710196	382.745217	-80.135181	
3	377.487311	380.164036	-81.034644	
-1	377.908047	379.369349	-80.597089	
-2	377.870352	379.882435	-81.914405	
-3	377.154944	380.643392	-77.441636	
-4	374.161284	383.932394	-78.674070	
3	384.914170	381.629679	-74.768340	
-1	385.547684	380.860663	-74.683036	
-2	385.685851	382.249624	-74.910389	
-3	382.975303	378.800579	-73.548943	
-4	380.030584	381.842976	-75.686183	
1	380.939567	383.980444	-70.834083	
-1	381.297862	384.867657	-71.124735	
-2	380.051045	384.400066	-70.648492	
-3	384.544942	383.601849	-71.162564	
-4	383.319635	379.704361	-69.487309	
