60
Final configuration at step 5000.000000
2	318.432967	361.872417	-99.373933	
-1	318.104706	362.814861	-99.310395	
-2	317.674437	361.569321	-98.797076	
-3	322.748295	361.856183	-101.482385	
-4	324.215781	357.241856	-103.426737	
2	326.286720	370.378265	-95.907474	
-1	325.949005	371.319462	-95.897765	
-2	326.820877	370.561416	-95.082167	
-3	324.970120	368.284649	-100.024676	
-4	325.515771	363.406193	-99.398856	
2	325.923070	375.111865	-107.715475	
-1	325.389738	375.783158	-108.230182	
-2	326.474346	374.926184	-108.528871	
-3	323.830472	374.384106	-103.454097	
-4	327.315472	371.083663	-101.903934	
3	317.567982	373.152183	-108.842565	
-1	317.067467	373.981605	-109.090645	
-2	317.193595	372.686435	-109.644384	
-3	317.814096	375.417347	-106.003829	
-4	321.172081	372.760339	-103.902272	
2	322.111758	382.652798	-102.685653	
-1	322.162158	383.554372	-102.255973	
-2	323.053076	382.753683	-103.007743	
-3	317.574445	381.087260	-102.512792	
-4	316.979967	375.578589	-102.217799	
3	316.190250	388.533231	-107.663624	
-1	316.052825	388.640024	-108.648363	
-2	316.047761	389.514930	-107.537276	
-3	317.173089	385.387744	-109.209557	
-4	316.306026	381.359264	-106.775543	
0	320.774800	391.621082	-105.506822	
-1	321.199143	392.498904	-105.729002	
-2	320.413506	392.010207	-104.659446	
-3	322.319998	388.303198	-108.616798	
-4	320.781623	383.630598	-109.084049	
0	325.171725	392.688071	-113.502522	
-1	325.350855	392.751269	-114.484316	
-2	324.403035	393.319895	-113.602099	
-3	328.774408	390.303953	-111.403800	
-4	326.173613	387.924430	-107.252120	
2	334.711174	398.154551	-105.963229	
-1	334.798285	398.701298	-105.130475	
-2	335.349773	398.765490	-106.431144	
-3	331.168138	394.964986	-105.378805	
-4	331.969967	391.279945	-109.437890	
3	326.538018	399.541799	-101.367021	
-1	325.825730	400.232775	-101.490289	
-2	326.457176	399.635490	-100.374707	
-3	326.520795	400.415199	-104.900694	
-4	327.854332	396.354243	-107.276942	
3	332.257869	402.660223	-100.457458	
-1	332.194734	403.406254	-99.794547	
-2	332.870627	402.164909	-99.841674	
-3	330.607809	405.430568	-102.146363	
-4	330.004754	402.382725	-105.059603	
1	336.683298	409.891211	-109.286628	
-1	336.610771	409.337549	-110.116204	
-2	337.052454	410.649005	-109.824654	
-3	335.947836	406.489697	-108.219496	
-4	332.796773	407.723381	-103.692225	
