60
Final configuration at step 5000.000000
2	357.348838	437.831942	-93.713812	
-1	357.710930	437.684370	-92.793427	
-2	356.961215	438.706071	-93.421163	
-3	357.918492	433.814377	-96.283353	
-4	359.341408	436.276899	-101.154080	
2	362.946260	432.793718	-91.847721	
-1	363.536913	432.430160	-91.127336	
-2	363.616514	433.511872	-92.034836	
-3	358.696587	430.563487	-91.662523	
-4	356.409320	430.625663	-95.474655	
2	352.929258	438.562573	-86.382902	
-1	351.977217	438.864741	-86.431010	
-2	353.187453	439.440328	-85.979318	
-3	353.378619	434.416901	-88.766063	
-4	357.972270	432.557864	-87.761611	
3	352.646026	439.646311	-97.265638	
-1	352.904493	440.555708	-96.939765	
-2	352.449629	440.026066	-98.169635	
-3	352.972974	439.413091	-93.647814	
-4	353.601620	434.869343	-92.817139	
2	345.823542	441.998064	-96.012219	
-1	345.309137	442.732004	-96.455747	
-2	345.316912	441.320670	-96.545569	
-3	348.409973	443.851473	-92.414551	
-4	350.251778	439.570261	-91.323158	
3	346.155694	449.455464	-90.947129	
-1	345.417999	450.046396	-90.620622	
-2	346.463044	450.180006	-91.564038	
-3	343.935764	447.364977	-88.959226	
-4	346.409669	443.776979	-89.878877	
0	339.105838	441.174114	-83.830021	
-1	338.728650	440.248209	-83.850833	
-2	339.113862	441.148379	-82.830386	
-3	339.003100	443.006863	-88.268303	
-4	341.251734	446.046055	-90.644562	
0	341.443910	440.927108	-93.954675	
-1	341.891388	440.067890	-94.202685	
-2	342.304895	441.416007	-94.094989	
-3	337.053646	439.972955	-92.256670	
-4	335.217966	443.803752	-89.897657	
2	329.486539	438.227706	-90.216739	
-1	328.750035	437.556114	-90.297548	
-2	328.820052	438.968593	-90.299705	
-3	333.710806	435.951533	-90.423176	
-4	337.569647	438.942304	-88.800969	
3	329.541992	439.447934	-96.988028	
-1	328.554149	439.454837	-96.832727	
-2	329.415265	439.990771	-97.818249	
-3	328.878494	437.048967	-94.331963	
-4	333.095955	434.910641	-93.997752	
3	322.567239	435.197533	-93.706459	
-1	321.915941	434.459713	-93.529163	
-2	321.855112	435.872527	-93.513433	
-3	324.149305	432.110766	-94.810487	
-4	328.215691	433.145866	-95.011846	
1	325.459193	426.171864	-101.544318	
-1	326.410080	425.868057	-101.485025	
-2	325.197152	425.279832	-101.912575	
-3	327.463464	429.124469	-100.826698	
-4	325.049441	432.477078	-98.858574	
