60
Final configuration at step 5000.000000
2	363.673330	413.478369	-101.793953	
-1	362.852731	413.862055	-102.217506	
-2	364.244226	414.062858	-102.370537	
-3	362.416671	409.748851	-99.040885	
-4	366.169562	409.778528	-95.484641	
2	358.372683	405.254201	-93.188281	
-1	357.647470	404.754803	-92.714289	
-2	358.605200	405.724536	-92.336978	
-3	358.005470	404.443339	-97.907986	
-4	362.854394	405.580041	-99.588479	
2	363.963363	403.324321	-106.722133	
-1	364.275656	403.722218	-107.584775	
-2	364.558637	402.534683	-106.870858	
-3	360.279234	405.911012	-105.047557	
-4	357.352975	406.276154	-101.162307	
3	358.031032	399.563767	-109.861735	
-1	357.312348	398.872151	-109.789899	
-2	358.720237	398.841545	-109.919947	
-3	354.976209	401.314013	-108.937275	
-4	356.986467	405.593415	-107.829536	
2	349.280109	396.224703	-106.240492	
-1	348.914787	395.296372	-106.171633	
-2	348.484957	396.497439	-106.782106	
-3	353.761707	396.275873	-104.514041	
-4	354.412334	401.193533	-104.980353	
3	361.543155	395.104629	-102.653988	
-1	362.202567	394.401850	-102.920970	
-2	362.235038	395.533031	-102.072809	
-3	359.676052	392.528644	-104.422665	
-4	356.354315	395.166338	-106.532567	
0	364.087598	392.066440	-97.030969	
-1	364.975553	391.606919	-97.011489	
-2	364.384111	392.670759	-96.291458	
-3	361.117876	389.613801	-99.900320	
-4	357.180184	391.348222	-102.181300	
0	365.823933	383.487881	-101.368042	
-1	366.300134	382.664884	-101.677735	
-2	366.612338	384.043455	-101.632163	
-3	361.818966	382.200963	-99.050256	
-4	359.700557	386.893130	-97.960237	
2	360.662422	382.929988	-87.040784	
-1	360.334745	383.662988	-86.444678	
-2	360.547546	382.272819	-86.295845	
-3	362.356352	384.854072	-91.102374	
-4	363.917890	382.346697	-95.400492	
3	369.834229	388.324452	-88.096376	
-1	369.924522	388.627540	-87.147701	
-2	370.794846	388.549301	-88.259642	
-3	366.469227	388.477595	-86.716788	
-4	366.007240	386.842192	-90.677694	
3	366.680734	392.323683	-81.630658	
-1	365.824801	392.152108	-81.142865	
-2	367.149154	392.465921	-80.758676	
-3	364.034419	392.292418	-84.129853	
-4	364.923939	391.011492	-88.204695	
1	356.052201	393.384347	-84.811404	
-1	355.530840	393.225961	-85.649913	
-2	355.296325	393.014043	-84.271473	
-3	357.833260	395.082679	-87.493466	
-4	363.001603	395.057319	-86.341157	
