60
Final configuration at step 5000.000000
2	345.394304	375.524195	-91.956315	
-1	344.991032	374.693942	-92.341082	
-2	346.030741	375.571841	-92.726170	
-3	343.638265	376.216368	-87.539856	
-4	343.164552	380.121100	-84.012568	
2	348.715909	367.875346	-84.283817	
-1	349.344036	367.110730	-84.428102	
-2	348.221514	367.339977	-83.599014	
-3	349.523057	371.218872	-87.636033	
-4	346.670637	375.314381	-85.444459	
2	352.391575	364.902481	-86.811206	
-1	352.953773	364.083645	-86.695265	
-2	353.056488	365.433387	-86.285825	
-3	348.180285	363.648773	-88.750587	
-4	347.702245	368.568708	-90.699743	
3	339.671191	364.303571	-83.082992	
-1	339.601086	364.906604	-82.288362	
-2	338.674088	364.284766	-83.156689	
-3	342.991612	364.481622	-81.602091	
-4	344.521144	364.202465	-86.781498	
2	345.044415	369.689437	-79.535211	
-1	345.586751	370.522305	-79.424746	
-2	344.215137	370.199011	-79.305796	
-3	348.009912	365.946686	-80.050610	
-4	345.725077	361.801869	-80.548776	
3	349.016609	368.581180	-74.143113	
-1	349.723430	368.822865	-73.478286	
-2	348.705406	369.531412	-74.157688	
-3	350.410591	365.454089	-72.906957	
-4	348.936216	363.700114	-76.985604	
0	346.854051	357.313417	-66.952748	
-1	346.126302	356.689857	-66.667166	
-2	347.452406	356.939667	-66.244030	
-3	345.072240	360.453354	-70.120378	
-4	349.081873	363.636465	-70.527403	
0	339.073112	362.508253	-61.197292	
-1	338.138704	362.232726	-60.971530	
-2	339.261357	362.664358	-60.227655	
-3	339.477375	362.912892	-65.966025	
-4	343.708074	362.909296	-67.039025	
2	341.428732	373.973882	-65.572105	
-1	342.277945	374.446830	-65.337246	
-2	340.955428	374.852831	-65.630697	
-3	342.055417	369.247943	-64.988373	
-4	338.958508	366.306110	-66.931225	
3	339.248454	371.799602	-56.080147	
-1	338.521125	372.428546	-56.354773	
-2	338.870317	371.766277	-55.154997	
-3	340.151910	373.081711	-59.364950	
-4	341.414035	368.268451	-61.467990	
3	345.146320	380.788156	-54.528182	
-1	344.702396	380.634461	-53.645397	
-2	345.878218	381.294340	-54.072002	
-3	341.836800	379.447438	-55.234911	
-4	342.630671	375.396016	-59.080018	
1	336.685406	384.933210	-51.164384	
-1	335.742617	385.250195	-51.267678	
-2	336.610651	385.034152	-50.172304	
-3	336.162085	385.536214	-54.715792	
-4	339.873923	382.105631	-57.139400	
