60
Final configuration at step 5000.000000
2	383.545721	408.219100	-92.532484	
-1	382.635610	407.826812	-92.665907	
-2	383.484744	408.664398	-93.425787	
-3	385.535187	406.265031	-88.622046	
-4	389.203924	407.951916	-88.259224	
2	395.371161	401.387868	-87.086372	
-1	396.250968	401.783169	-86.822411	
-2	395.656812	400.504305	-86.715266	
-3	392.982152	404.553145	-89.795922	
-4	388.111194	402.865343	-87.919199	
2	393.954235	397.035979	-94.541503	
-1	394.561826	396.653739	-95.237726	
-2	393.728610	396.112449	-94.231372	
-3	393.474149	401.753986	-95.301681	
-4	390.677702	404.685398	-92.828471	
3	386.939441	404.937199	-99.783866	
-1	386.530798	405.733872	-99.338531	
-2	386.558920	405.231989	-100.660394	
-3	387.271178	404.421371	-96.195854	
-4	390.446607	401.205351	-98.332081	
2	384.374153	394.014064	-94.744985	
-1	384.699938	393.242412	-95.291262	
-2	383.873273	393.383143	-94.152484	
-3	385.541132	398.109026	-96.967021	
-4	385.691274	401.507011	-93.728126	
3	380.223058	402.532618	-101.094904	
-1	379.291081	402.629943	-101.444117	
-2	380.367250	403.515948	-101.205679	
-3	378.966614	399.168504	-101.689928	
-4	383.264926	397.444827	-100.300329	
0	376.785522	405.026898	-108.638302	
-1	376.067340	405.283314	-109.285193	
-2	377.251419	405.894600	-108.811603	
-3	376.187574	400.431764	-107.375316	
-4	379.747396	398.739713	-105.273864	
0	372.788565	392.370491	-111.928127	
-1	372.067324	391.870694	-111.448530	
-2	372.357804	392.151905	-112.803722	
-3	376.234780	393.538476	-108.793260	
-4	377.719754	398.275626	-110.588177	
2	384.523956	385.712130	-110.139430	
-1	385.076631	385.236244	-110.823597	
-2	385.112048	385.353147	-109.414668	
-3	380.602003	387.497287	-112.260627	
-4	379.464142	391.143519	-108.868016	
3	378.751281	379.983157	-111.465827	
-1	378.553505	379.283358	-112.152241	
-2	379.345745	379.340746	-110.982172	
-3	375.999790	381.242752	-113.488864	
-4	376.897561	385.471795	-110.888864	
3	375.464201	376.761901	-111.655368	
-1	375.272749	376.039264	-110.991183	
-2	375.980749	376.112308	-112.213226	
-3	374.039147	378.380055	-108.722672	
-4	373.083670	381.344392	-111.817148	
1	376.929123	377.383869	-102.418714	
-1	377.523122	377.512740	-101.624639	
-2	376.933220	376.396311	-102.261509	
-3	378.064473	380.841251	-102.505094	
-4	375.260433	381.428684	-106.201982	
