60
Final configuration at step 5000.000000
2	269.193857	404.557307	-99.798800	
-1	268.271840	404.431194	-100.164824	
-2	268.834114	405.185752	-99.109132	
-3	272.352454	402.481243	-102.762094	
-4	276.895846	403.254894	-101.470041	
2	277.708344	398.807086	-105.517562	
-1	278.111474	398.227434	-106.225721	
-2	277.984136	398.146188	-104.819599	
-3	275.220881	402.340283	-107.614478	
-4	272.739784	405.357458	-104.979369	
2	278.317330	403.137222	-111.920592	
-1	278.916608	403.479649	-112.644202	
-2	279.115790	402.816414	-111.411141	
-3	273.757175	403.412931	-113.402793	
-4	271.648637	401.906920	-108.878389	
3	279.196912	402.649196	-118.411181	
-1	279.339828	403.630042	-118.543535	
-2	280.185789	402.513251	-118.350844	
-3	275.988830	404.054777	-119.402400	
-4	274.134396	401.003054	-116.010045	
2	284.272793	401.874847	-120.895737	
-1	284.953605	402.399725	-120.384857	
-2	284.895109	401.092498	-120.921262	
-3	280.690062	404.799559	-122.191151	
-4	276.285410	403.517115	-123.687517	
3	280.152394	410.009665	-129.818263	
-1	280.780295	410.775355	-129.957767	
-2	279.552921	410.371156	-130.532376	
-3	282.540862	409.924310	-127.072739	
-4	281.096712	405.969334	-125.749152	
0	282.066552	417.975481	-124.055275	
-1	282.390179	418.706275	-123.454269	
-2	281.503511	418.634707	-124.553677	
-3	283.545091	413.749060	-122.317685	
-4	280.368434	411.155970	-124.099721	
0	274.733339	411.740809	-119.097158	
-1	273.743998	411.731349	-119.242475	
-2	274.688716	410.810623	-118.732791	
-3	276.384213	416.187683	-119.850754	
-4	280.885652	414.519668	-119.013937	
2	270.690381	423.865292	-122.687456	
-1	270.211480	424.742098	-122.644258	
-2	270.454227	423.784014	-123.655767	
-3	271.899178	422.520458	-118.237938	
-4	275.978322	419.325328	-117.876934	
3	266.717296	423.140447	-111.825555	
-1	266.983330	424.102551	-111.765716	
-2	265.786769	423.380552	-111.549022	
-3	270.346670	423.245689	-112.083498	
-4	269.580319	419.854433	-115.872620	
3	271.181244	419.830643	-102.013460	
-1	270.199405	419.827103	-101.823777	
-2	271.355968	419.424263	-101.116618	
-3	269.599072	421.814225	-104.623449	
-4	271.844762	421.591051	-109.216171	
1	268.497010	426.874177	-100.710090	
-1	267.546428	427.184256	-100.725653	
-2	268.529110	427.022192	-99.721626	
-3	267.589201	427.306215	-104.208546	
-4	271.296224	425.359292	-105.672965	
