60
Final configuration at step 20000.000000
2	-8.962352	-1.150814	-5.625597	
-1	-8.749192	-0.460497	-6.316989	
-2	-8.724595	-0.501083	-4.903572	
-3	-9.689728	-5.371496	-7.799225	
-4	-10.616409	-8.557703	-4.669488	
2	-4.983522	0.031616	-4.538056	
-1	-4.747661	0.991006	-4.692785	
-2	-4.889651	0.167600	-3.551802	
-3	-5.087253	-2.255903	-8.759961	
-4	-6.096033	-6.699131	-8.091205	
2	-1.299242	0.879260	-2.899173	
-1	-1.034823	1.769787	-2.528978	
-2	-1.435556	0.533769	-1.970704	
-3	-0.424273	0.824165	-7.621395	
-4	-1.486563	-3.350520	-9.495358	
3	2.055579	-0.065962	-2.378300	
-1	2.233861	0.683692	-1.740935	
-2	1.694931	-0.618846	-1.627134	
-3	4.074945	2.377524	-4.167573	
-4	3.418463	-0.247868	-8.102044	
2	4.310905	-2.172501	2.055724	
-1	4.175479	-2.093081	3.043323	
-2	3.843533	-3.056535	2.062728	
-3	7.239088	1.340775	0.589218	
-4	7.808719	1.235302	-4.116995	
3	10.450808	-5.736858	2.022980	
-1	10.326543	-6.432831	1.315746	
-2	10.471767	-6.451299	2.722362	
-3	9.601162	-3.975805	-1.047323	
-4	10.912087	0.066924	1.460975	
0	7.959051	-5.170952	5.944054	
-1	7.972016	-5.890514	6.638362	
-2	8.379882	-4.537150	6.593050	
-3	5.407624	-6.685199	2.167120	
-4	5.787932	-3.150247	-1.251434	
0	6.020049	-1.320834	7.418544	
-1	6.366441	-1.142172	8.339464	
-2	6.348941	-0.424579	7.120958	
-3	3.379074	-5.331836	7.489764	
-4	1.585870	-6.132476	3.181048	
2	1.748162	-0.111547	2.605296	
-1	2.118137	0.762786	2.291195	
-2	1.562012	-0.373016	1.658204	
-3	1.357579	-0.017786	7.391386	
-4	-0.139026	-4.065678	8.849372	
3	-1.398118	1.447446	2.283948	
-1	-1.023282	2.145901	1.674308	
-2	-1.610402	0.871996	1.494143	
-3	-0.866133	4.429303	4.302735	
-4	-2.106541	1.707321	8.049745	
3	-4.302601	3.105704	-0.269554	
-1	-4.163463	3.448758	-1.198507	
-2	-4.509464	2.198391	-0.635601	
-3	-4.080020	6.730981	-0.029195	
-4	-4.303372	6.238147	4.786914	
1	-7.862406	3.026268	-2.149480	
-1	-7.993988	2.802854	-3.115283	
-2	-7.936616	2.056950	-1.915143	
-3	-8.391668	6.176518	-3.894690	
-4	-7.535059	8.332626	0.337268	
