60
Final configuration at step 5000.000000
2	320.230953	386.330476	-81.546980	
-1	320.881949	386.834804	-80.979660	
-2	319.824154	387.193262	-81.847170	
-3	320.581055	381.646371	-80.544744	
-4	319.632400	380.481393	-85.770070	
2	314.060029	374.298454	-81.778967	
-1	313.176619	374.202742	-82.237688	
-2	314.286767	373.354454	-82.018661	
-3	314.135369	378.457724	-79.378383	
-4	317.302969	381.620418	-77.438464	
2	306.208496	378.654534	-79.168761	
-1	305.222753	378.808587	-79.236439	
-2	306.250907	378.492790	-80.154680	
-3	307.446233	378.446790	-74.532729	
-4	312.422049	378.735948	-75.823683	
3	307.248783	373.579900	-78.979218	
-1	307.490725	372.649074	-79.253129	
-2	307.533861	373.917931	-79.876137	
-3	307.132374	371.534722	-75.970288	
-4	305.230351	375.366220	-73.817094	
2	306.226725	366.224767	-76.039942	
-1	305.956460	365.504982	-76.679369	
-2	305.271956	366.339601	-75.765663	
-3	310.843725	367.322809	-76.778592	
-4	310.774618	371.144605	-75.061877	
3	312.199927	361.693716	-79.755861	
-1	312.336783	361.376366	-80.694244	
-2	312.444968	360.786707	-79.413385	
-3	310.878735	364.284415	-81.945086	
-4	311.331144	369.197526	-79.680041	
0	300.680588	363.869073	-77.356927	
-1	299.681486	363.827185	-77.363521	
-2	300.676342	363.813172	-76.358501	
-3	302.234113	364.893451	-81.784697	
-4	307.148855	362.722785	-82.652760	
0	305.853629	365.176218	-90.077321	
-1	306.808454	365.251185	-90.364882	
-2	305.707863	364.451113	-90.750357	
-3	304.828418	368.796593	-87.092392	
-4	301.253817	368.658217	-83.786016	
2	311.641526	377.110486	-88.500669	
-1	311.831294	377.913734	-87.936062	
-2	312.563135	377.163051	-88.885212	
-3	306.970944	376.038142	-88.178594	
-4	305.065343	371.267681	-89.389891	
3	307.444329	376.784254	-94.556662	
-1	308.232501	377.191522	-95.018089	
-2	307.290947	376.188157	-95.344788	
-3	308.409169	379.704519	-92.609586	
-4	304.670669	379.086512	-90.298066	
3	302.509910	386.477478	-99.320291	
-1	301.990757	385.760187	-99.785020	
-2	301.925453	387.172158	-99.739610	
-3	304.371734	383.380438	-98.882268	
-4	307.150564	383.026318	-94.356334	
1	299.916081	381.450947	-101.899061	
-1	299.440021	381.140426	-102.721826	
-2	299.118923	381.208245	-101.346217	
-3	301.902179	382.554962	-104.742745	
-4	306.550914	383.513141	-102.158821	
