60
Final configuration at step 5000.000000
2	323.459982	404.727767	-70.644992	
-1	323.545048	405.656398	-70.283876	
-2	323.816608	404.360968	-69.785763	
-3	322.387828	404.958186	-75.321023	
-4	320.238837	400.244481	-76.197492	
2	318.618910	406.647090	-79.440467	
-1	317.827424	406.646632	-80.051655	
-2	318.124089	407.234546	-78.800119	
-3	322.332010	404.587690	-81.685397	
-4	325.351843	405.030857	-78.283276	
2	323.705349	403.266053	-91.912063	
-1	323.070678	402.734021	-92.472542	
-2	324.388465	403.218898	-92.640849	
-3	321.892058	403.710511	-87.486862	
-4	323.894004	406.306741	-83.912768	
3	323.733233	400.409303	-80.651372	
-1	323.189022	399.829089	-80.045412	
-2	324.192539	400.807669	-79.857433	
-3	321.130678	398.899066	-82.699745	
-4	323.524406	400.071761	-85.877407	
2	310.279857	399.624647	-86.428543	
-1	309.312800	399.599414	-86.175237	
-2	310.025309	399.731284	-87.389705	
-3	312.933716	398.480383	-82.592444	
-4	317.462093	400.372398	-83.156881	
3	319.466958	390.998405	-82.115460	
-1	320.321954	391.291125	-82.543594	
-2	319.969844	390.328602	-81.569136	
-3	318.561582	393.153852	-84.905501	
-4	315.109825	394.808970	-82.006528	
0	315.119924	394.305887	-95.223895	
-1	315.351393	393.940204	-96.125394	
-2	314.692938	395.100337	-95.655785	
-3	317.292852	391.659836	-91.855710	
-4	315.483234	391.996677	-87.408059	
0	322.634630	394.548362	-97.943701	
-1	323.140776	394.280008	-98.763338	
-2	322.470504	395.451386	-98.340708	
-3	323.179138	391.156918	-94.586668	
-4	320.530710	391.871960	-90.327675	
2	323.723693	384.546342	-94.155733	
-1	323.680558	383.681963	-93.654743	
-2	322.780273	384.416557	-94.460883	
-3	328.255540	386.137031	-94.146573	
-4	327.032888	391.141671	-93.436848	
3	333.019660	379.284406	-95.774317	
-1	333.739482	379.190187	-95.086582	
-2	332.913302	378.290389	-95.799176	
-3	334.588105	382.552105	-95.439539	
-4	330.558541	384.806561	-97.423400	
3	338.530151	376.123275	-102.154987	
-1	338.670508	375.408361	-101.470006	
-2	338.727597	375.465549	-102.881907	
-3	338.634821	377.778043	-98.914505	
-4	336.548851	382.822273	-98.653991	
1	339.865716	373.006748	-93.263831	
-1	339.463721	373.618059	-92.582143	
-2	339.236821	372.281305	-92.984147	
-3	342.030172	375.926498	-93.063463	
-4	342.200356	379.451410	-97.859343	
