60
Final configuration at step 5000.000000
2	346.234506	385.953584	-125.385963	
-1	346.554233	385.406503	-124.612354	
-2	346.604205	385.273862	-126.019445	
-3	344.695134	390.205329	-123.767050	
-4	341.081774	391.572869	-127.124945	
2	349.133842	396.044435	-116.303195	
-1	348.890074	396.327882	-115.375707	
-2	350.094429	396.246742	-116.112552	
-3	345.112794	395.358714	-118.838736	
-4	347.805760	392.024045	-121.953065	
2	339.181496	400.879600	-126.281755	
-1	339.188583	401.663728	-126.902316	
-2	338.217842	400.719226	-126.495409	
-3	343.302508	400.796558	-123.816333	
-4	342.774208	396.254406	-121.540633	
3	336.992526	406.523536	-122.560039	
-1	336.980256	407.205736	-123.291101	
-2	336.045294	406.749810	-122.332990	
-3	340.431265	406.919804	-123.686097	
-4	343.055518	403.659259	-121.808289	
2	344.252803	412.507746	-128.612137	
-1	344.741125	413.301933	-128.973812	
-2	344.282779	412.078279	-129.514722	
-3	342.734666	413.495353	-124.163779	
-4	342.247000	409.227162	-121.065737	
3	338.188055	420.140063	-121.343014	
-1	338.145208	420.399342	-120.378162	
-2	338.061465	421.096610	-121.605682	
-3	337.929759	417.051088	-119.434746	
-4	339.783334	415.147844	-123.760713	
0	335.892911	413.362789	-111.483233	
-1	335.619971	412.641830	-110.846267	
-2	336.148368	413.946808	-110.712739	
-3	334.516294	412.137334	-115.918447	
-4	334.322181	415.558025	-118.855463	
0	322.609160	411.838040	-116.472946	
-1	321.835843	412.428518	-116.242042	
-2	321.975299	411.109882	-116.733731	
-3	326.672750	413.931953	-114.999603	
-4	330.947777	411.574475	-117.307397	
2	331.144661	411.933579	-104.997225	
-1	331.200328	412.304833	-104.070364	
-2	332.138094	411.820043	-105.011413	
-3	326.673234	412.515574	-106.651193	
-4	327.997022	412.137583	-111.114088	
3	326.963171	422.204551	-108.180239	
-1	327.878718	422.575280	-108.024254	
-2	326.565860	423.098506	-107.972901	
-3	329.245021	419.369764	-108.095911	
-4	325.845781	415.614293	-107.643140	
3	321.651402	418.071712	-106.390507	
-1	321.156243	418.913868	-106.176985	
-2	320.855583	417.730662	-106.890860	
-3	323.627717	419.852120	-103.905705	
-4	328.974370	418.254049	-104.287890	
1	327.359999	423.573736	-98.507500	
-1	327.345395	424.065719	-97.637019	
-2	328.342121	423.744201	-98.587368	
-3	323.860105	424.064471	-97.635781	
-4	322.818906	420.008342	-100.004815	
