60
Final configuration at step 5000.000000
2	341.619750	439.048612	-104.338256	
-1	341.646510	438.461878	-105.147591	
-2	342.024375	439.795308	-104.866198	
-3	340.412083	436.396235	-100.520624	
-4	340.054322	438.092703	-96.218138	
2	343.387139	426.351205	-98.264826	
-1	343.693440	425.579442	-98.822108	
-2	343.181477	425.725960	-97.511985	
-3	343.170100	430.281353	-101.017058	
-4	342.937850	434.009935	-97.909088	
2	333.187094	426.081814	-103.285665	
-1	332.588603	425.306707	-103.083134	
-2	332.481098	426.472612	-103.876296	
-3	337.559174	425.190500	-101.508461	
-4	339.625018	429.963683	-102.014414	
3	341.929435	419.950582	-108.235187	
-1	341.714079	418.987062	-108.076274	
-2	342.820406	419.690103	-108.607098	
-3	338.913777	419.869392	-106.198240	
-4	339.529163	424.124341	-104.493940	
2	340.276337	412.297674	-100.386337	
-1	340.094560	411.368195	-100.707311	
-2	340.925719	411.939092	-99.715725	
-3	337.124567	415.299790	-102.416511	
-4	340.396666	419.565252	-102.089378	
3	329.613739	411.925015	-102.407684	
-1	328.992251	411.274531	-101.971077	
-2	329.185098	411.740862	-103.292193	
-3	330.855547	411.390767	-99.027969	
-4	333.588595	415.259076	-99.921981	
0	336.766569	403.608405	-105.128012	
-1	336.776912	402.642158	-105.385430	
-2	337.555600	403.774433	-105.719503	
-3	333.647848	404.236982	-101.529911	
-4	334.228513	408.927535	-99.218383	
0	337.743219	404.576216	-91.082441	
-1	338.371331	405.049208	-90.464578	
-2	337.670364	403.821408	-90.430551	
-3	337.636330	406.898056	-95.285498	
-4	335.966338	404.075450	-97.814568	
2	345.201885	405.201350	-89.604924	
-1	345.154024	405.656175	-88.715629	
-2	345.745075	404.466043	-89.199621	
-3	343.435805	408.143425	-92.965454	
-4	341.071860	405.707345	-96.799348	
3	350.951958	404.838710	-93.941335	
-1	350.943340	404.175212	-93.193206	
-2	351.601038	404.265876	-94.441890	
-3	349.217212	406.416127	-91.157028	
-4	346.034597	409.406543	-94.380514	
3	354.091112	408.958177	-91.072657	
-1	354.973295	409.320924	-90.772374	
-2	354.519334	408.605529	-91.904683	
-3	353.424847	411.109567	-88.213015	
-4	349.582417	409.732643	-89.239505	
1	354.635420	415.482446	-94.174037	
-1	354.510400	416.300336	-94.735666	
-2	354.971994	414.984904	-94.973518	
-3	352.742840	417.857026	-92.166682	
-4	351.706492	414.068270	-88.619427	
