60
Final configuration at step 5000.000000
2	304.938640	415.703433	-59.762426	
-1	304.035826	415.399924	-59.457791	
-2	304.803009	416.576667	-59.294382	
-3	306.670906	412.533127	-62.927280	
-4	311.248113	413.474074	-62.221625	
2	308.082333	417.536826	-72.290195	
-1	308.332274	417.430805	-73.252633	
-2	307.749811	418.460961	-72.478352	
-3	309.827713	413.818942	-69.800415	
-4	305.435015	413.518746	-66.404552	
2	310.131977	409.959152	-74.204933	
-1	310.176579	409.053072	-74.625684	
-2	309.351388	410.190380	-74.785633	
-3	314.005356	410.592460	-71.436578	
-4	314.143058	415.107034	-69.757640	
3	315.663176	407.547025	-81.346089	
-1	315.417647	406.615768	-81.076874	
-2	315.164502	407.430210	-82.204970	
-3	317.654519	406.742650	-78.407127	
-4	317.648485	410.453338	-74.200246	
2	322.601056	412.804095	-83.010828	
-1	322.351886	413.302068	-83.841453	
-2	323.317655	413.475836	-82.823077	
-3	320.239928	408.622518	-82.924308	
-4	321.923513	406.554516	-79.160080	
3	327.326092	405.927597	-87.039709	
-1	327.443546	406.915353	-87.142397	
-2	328.317666	405.816642	-86.972841	
-3	324.090794	407.274354	-88.024116	
-4	321.132905	405.349169	-84.578830	
0	319.359415	413.938429	-87.011346	
-1	318.744249	414.713358	-87.156469	
-2	319.367449	414.128655	-86.029639	
-3	320.846226	412.299759	-91.274219	
-4	323.669619	408.202723	-91.356829	
0	324.165919	421.796766	-94.112204	
-1	323.600926	422.517693	-94.513510	
-2	324.930886	422.436724	-94.039530	
-3	321.839471	417.609148	-94.457846	
-4	324.602280	414.524611	-91.987583	
2	319.103396	408.630761	-95.047820	
-1	318.211685	408.188791	-95.145361	
-2	319.469161	407.800141	-94.627955	
-3	318.670110	413.288307	-96.137550	
-4	323.279529	415.370444	-97.215493	
3	318.577102	420.440103	-93.076953	
-1	318.054747	421.231121	-93.395441	
-2	319.289041	421.050229	-92.729263	
-3	315.896971	419.153667	-95.177417	
-4	317.545083	415.605370	-92.872080	
3	311.921210	417.227784	-101.451625	
-1	311.741185	417.547061	-102.382030	
-2	311.354372	416.421091	-101.618774	
-3	313.147866	420.649468	-101.644781	
-4	317.772441	419.217246	-99.114319	
1	308.583376	419.037048	-100.494081	
-1	308.163938	418.306673	-99.954987	
-2	308.176260	418.657606	-101.324912	
-3	310.065453	419.197538	-97.173288	
-4	311.341363	422.850642	-98.908362	
