60
Final configuration at step 5000.000000
2	333.611881	430.511626	-36.662667	
-1	334.451729	430.077161	-36.337259	
-2	334.097343	431.381007	-36.754864	
-3	329.947296	427.460136	-36.090742	
-4	325.816350	429.437194	-36.317217	
2	336.382999	421.428832	-30.537559	
-1	337.217671	421.121279	-30.994436	
-2	336.497431	420.714224	-29.847459	
-3	334.180445	424.669218	-33.315438	
-4	329.826200	426.793784	-32.662497	
2	338.089785	417.298448	-32.735432	
-1	339.049198	417.227328	-32.462540	
-2	337.941280	416.348402	-32.460917	
-3	337.423662	421.454736	-35.048336	
-4	333.276749	423.291687	-36.452556	
3	333.773306	422.023589	-42.153646	
-1	333.166137	421.229356	-42.176895	
-2	333.198806	422.482617	-42.831318	
-3	335.459767	419.357433	-40.337773	
-4	338.523239	422.579831	-38.249461	
2	340.818276	409.747120	-40.628036	
-1	341.733345	409.381157	-40.797504	
-2	340.507729	408.839623	-40.345178	
-3	340.595485	414.243612	-42.301323	
-4	336.579582	416.784340	-43.148572	
3	343.514822	409.737957	-46.132517	
-1	344.483540	409.949052	-46.262997	
-2	343.755451	408.810374	-45.846705	
-3	343.669950	412.934151	-47.867529	
-4	338.690283	413.127955	-46.139252	
0	348.107476	417.049296	-54.497581	
-1	348.232359	417.978275	-54.846013	
-2	349.097095	416.957834	-54.386735	
-3	343.524290	415.750260	-55.109767	
-4	343.068298	411.838787	-51.859337	
0	341.553623	417.916202	-63.792439	
-1	341.892535	418.000146	-64.729505	
-2	341.117919	418.812974	-63.869686	
-3	343.568816	414.071428	-61.737017	
-4	341.341410	414.320044	-57.876160	
2	349.275542	408.018035	-62.260051	
-1	350.018647	407.420121	-62.560547	
-2	348.637852	407.249185	-62.307192	
-3	350.827805	412.563192	-62.254302	
-4	347.512664	414.983217	-60.466602	
3	347.454666	406.440292	-67.024098	
-1	347.759059	406.240103	-67.955371	
-2	347.446451	405.462110	-66.816511	
-3	347.181347	409.542186	-68.909172	
-4	349.093765	413.590562	-65.788638	
3	346.613546	416.829245	-71.925141	
-1	346.370289	417.661762	-71.427401	
-2	347.125773	417.375271	-72.588073	
-3	344.066880	415.896444	-69.497319	
-4	344.242607	411.365332	-69.524177	
1	343.062462	410.273567	-76.950591	
-1	342.516940	410.718723	-77.660693	
-2	343.497569	409.699847	-77.644512	
-3	340.532070	412.257023	-75.243845	
-4	341.334239	415.706815	-71.910761	
